config_start_time = '0001-01-01_00:00:00'
config_run_duration = '0000-00-03_00:00:00'
config_dt = '0000-00-01_00:00:00'
config_write_output_on_startup = .true.
config_do_restart = .false.

