config_start_time = '0001-01-01_04:00:00'
config_run_duration = '04:00:00'
config_dt = '00:30:00'
config_do_restart = .true.
