config_dt = '0000-01-00_00:00:00'
config_start_time = '0001-01-01_00:00:00'
config_stop_time = '0001-02-01_00:00:00'
config_write_output_on_startup = .true.
config_do_restart = .false.
